 Gaussian 09, Revision D.01,
 Gaussian 09:  ES64L-G09RevD.01 24-Apr-2013

 ----------------------------------
 #n RHF/6-31G(d,p) Opt Freq gfprint
 ----------------------------------

 ---------
 Water_PM3
 ---------
 Symbolic Z-matrix:
 Charge =  0 Multiplicity = 1

 SCF Done:  E(RHF) =  -76.0191929525     A.U. after   10 cycles
 SCF Done:  E(RHF) =  -76.0235173663     A.U. after    9 cycles
 SCF Done:  E(RHF) =  -76.0236141606     A.U. after    8 cycles
 SCF Done:  E(RHF) =  -76.0236150112     A.U. after    7 cycles
 Optimization completed.
    -- Stationary point found.
 Normal termination of Gaussian 09 at Thu Apr 23 16:46:08 2015.

 -------------------------------------------------------------------
 #N Geom=AllCheck Guess=TCheck SCRF=Check GenChk RHF/6-31G(d,p) Freq
 -------------------------------------------------------------------

 Structure from the checkpoint file:  "04_24_Homework41b_water_RHF6.chk"
 ---------
 Water_PM3
 ---------
 Charge =  0 Multiplicity = 1

                         Standard orientation:
 ---------------------------------------------------------------------
 Center     Atomic      Atomic             Coordinates (Angstroms)
 Number     Number       Type             X           Y           Z
 ---------------------------------------------------------------------
      1          8           0        0.000000    0.000000    0.113567
      2          1           0        0.000000    0.753015   -0.454266
      3          1           0        0.000000   -0.753015   -0.454266
 ---------------------------------------------------------------------

 SCF Done:  E(RHF) =  -76.0236150112     A.U. after    1 cycles

 The electronic state is 1-A1.
 Alpha  occ. eigenvalues --  -20.55728  -1.34644  -0.71385  -0.56829  -0.49761
 Alpha virt. eigenvalues --    0.21532   0.30842   1.01684   1.09299   1.13457
 Alpha virt. eigenvalues --    1.16898   1.29552   1.41169   1.80255   1.82945
 Alpha virt. eigenvalues --    1.93145   2.58265   2.58877   2.84153   2.99752

 Mulliken charges:
               1
     1  O   -0.670700
     2  H    0.335350
     3  H    0.335350
 Sum of Mulliken charges =   0.00000

 Dipole moment (field-independent basis, Debye):
    X=              0.0000    Y=              0.0000    Z=             -2.1478  Tot=              2.1478
 Quadrupole moment (field-independent basis, Debye-Ang):
   XX=             -7.1342   YY=             -4.0842   ZZ=             -5.9805
   XY=              0.0000   XZ=              0.0000   YZ=              0.0000

  Exact polarizability:   2.931   0.000   6.769   0.000   0.000   4.904
 Approx polarizability:   2.521   0.000   5.492   0.000   0.000   4.149

                      1                      2                      3
                     A1                     A1                     B2
 Frequencies --   1769.8659              4146.7625              4263.7153
 Red. masses --      1.0831                 1.0448                 1.0833
 Frc consts  --      1.9989                10.5851                11.6032
 IR Inten    --    104.5681                16.2841                57.8490
 Raman Activ --      5.4999                74.5882                36.4735

 - Thermochemistry -
 -------------------
 Temperature   298.150 Kelvin.  Pressure   1.00000 Atm.
 Atom     1 has atomic number  8 and mass  15.99491

 Molecular mass:    18.01056 amu.
 Principal axes and moments of inertia in atomic units:
                           1         2         3
     Eigenvalues --     2.06115   4.08150   6.14265
           X            0.00000   0.00000   1.00000
           Y            1.00000   0.00000   0.00000
           Z            0.00000   1.00000   0.00000
 This molecule is an asymmetric top.
 Rotational symmetry number  2.
 Rotational temperatures (Kelvin)     42.02216    21.22107    14.10041
 Rotational constants (GHZ):         875.60085   442.17591   293.80515
 Zero-point vibrational energy      60892.0 (Joules/Mol)
                                   14.55353 (Kcal/Mol)
 Vibrational temperatures:   2546.44  5966.26  6134.53
          (Kelvin)

 Zero-point correction=                           0.023193 (Hartree/Particle)
 Thermal correction to Energy=                    0.026027
 Thermal correction to Enthalpy=                  0.026971
 Thermal correction to Gibbs Free Energy=         0.005610
 Sum of electronic and zero-point Energies=            -76.000422
 Sum of electronic and thermal Energies=               -75.997588
 Sum of electronic and thermal Enthalpies=             -75.996644
 Sum of electronic and thermal Free Energies=          -76.018005

                     E (Thermal)             CV                S
                      KCal/Mol        Cal/Mol-Kelvin    Cal/Mol-Kelvin
 Total                   16.332              5.990             44.957
 Electronic               0.000              0.000              0.000
 Translational            0.889              2.981             34.608
 Rotational               0.889              2.981             10.345
 Vibrational             14.555              0.028              0.004

 Optimization completed.
    -- Stationary point found.
 Normal termination of Gaussian 09 at Thu Apr 23 16:46:31 2015.
