 Gaussian 09, Revision D.01,
 Gaussian 09:  ES64L-G09RevD.01 24-Apr-2013

 ---------------------------------------
 #n RHF/6-31G(d,p) pop=Reg Opt formcheck
 ---------------------------------------

 ------
 2bint1
 ------
 Symbolic Z-matrix:
 Charge =  1 Multiplicity = 1

 SCF Done:  E(RHF) =  -156.444904616     A.U. after   10 cycles
 SCF Done:  E(RHF) =  -156.456027398     A.U. after   10 cycles
 SCF Done:  E(RHF) =  -156.456532849     A.U. after    8 cycles
 SCF Done:  E(RHF) =  -156.456548102     A.U. after    7 cycles
 SCF Done:  E(RHF) =  -156.456550095     A.U. after    7 cycles
 Optimization completed.
    -- Stationary point found.

                         Standard orientation:
 ---------------------------------------------------------------------
 Center     Atomic      Atomic             Coordinates (Angstroms)
 Number     Number       Type             X           Y           Z
 ---------------------------------------------------------------------
      1          6           0       -1.342385   -0.606679   -0.010199
      2          6           0       -0.000001   -0.000003   -0.062135
      3          1           0       -2.104538    0.031012   -0.435713
      4          1           0       -1.562051   -0.707023    1.058360
      5          1           0       -1.367576   -1.599485   -0.437185
      6          6           0        1.196592   -0.859199   -0.010199
      7          1           0        1.025396   -1.838122   -0.435628
      8          1           0        2.068955   -0.384637   -0.437270
      9          1           0        1.393393   -0.999170    1.058360
     10          6           0        0.145793    1.465876   -0.010198
     11          1           0       -0.701394    1.984091   -0.437215
     12          1           0        1.079138    1.807075   -0.435685
     13          1           0        0.168687    1.706291    1.058359
 ---------------------------------------------------------------------

 The electronic state is 1-A.
 Alpha  occ. eigenvalues --  -11.58171 -11.44228 -11.44228 -11.44224  -1.35265
 Alpha  occ. eigenvalues --   -1.18684  -1.18684  -0.96099  -0.84892  -0.84892
 Alpha  occ. eigenvalues --   -0.83130  -0.76131  -0.76130  -0.74596  -0.73175
 Alpha  occ. eigenvalues --   -0.73175
 Alpha virt. eigenvalues --   -0.15972   0.02748   0.09117   0.09117   0.10568
 Alpha virt. eigenvalues --    0.11177   0.11177   0.14342   0.14342   0.17030
 Alpha virt. eigenvalues --    0.19950   0.25686   0.25687   0.48690   0.48690

 Mulliken charges:
               1
     1  C   -0.421632
     2  C    0.251799
     3  H    0.217905
     4  H    0.235166
     5  H    0.217961
     6  C   -0.421632
     7  H    0.217903
     8  H    0.217964
     9  H    0.235166
    10  C   -0.421631
    11  H    0.217962
    12  H    0.217904
    13  H    0.235166
 Sum of Mulliken charges =   1.00000

 Dipole moment (field-independent basis, Debye):
    X=              0.0000    Y=              0.0000    Z=              0.4535  Tot=              0.4535
 Quadrupole moment (field-independent basis, Debye-Ang):
   XX=            -18.4409   YY=            -18.4411   ZZ=            -22.8499
   XY=              0.0000   XZ=              0.0000   YZ=              0.0000

 Normal termination of Gaussian 09 at Wed Apr 22 23:11:31 2015.
