 Gaussian 09, Revision D.01,
 Gaussian 09:  ES64L-G09RevD.01 24-Apr-2013

 -----------------------
 #n PM3 Opt Freq gfprint
 -----------------------

 ------
 Waterc
 ------
 Symbolic Z-matrix:
 Charge =  0 Multiplicity = 1

 SCF Done:  E(RPM3) = -0.821065250600E-01 A.U. after    9 cycles
 SCF Done:  E(RPM3) = -0.849080842971E-01 A.U. after    7 cycles
 SCF Done:  E(RPM3) = -0.850181974076E-01 A.U. after    7 cycles
 SCF Done:  E(RPM3) = -0.850201695627E-01 A.U. after    6 cycles
 Optimization completed.
    -- Stationary point found.
 Normal termination of Gaussian 09 at Thu Apr 23 16:42:48 2015.

 -------------------------------------------------------------
 #N Geom=AllCheck Guess=TCheck SCRF=Check GenChk RPM3/ZDO Freq
 -------------------------------------------------------------

 Structure from the checkpoint file:  "04_24_Homework41c_water_PM3.chk"
 ------
 Waterc
 ------
 Charge =  0 Multiplicity = 1

                         Standard orientation:
 ---------------------------------------------------------------------
 Center     Atomic      Atomic             Coordinates (Angstroms)
 Number     Number       Type             X           Y           Z
 ---------------------------------------------------------------------
      1          8           0        0.000000    0.000000    0.112209
      2          1           0        0.000000    0.767821   -0.448836
      3          1           0        0.000000   -0.767821   -0.448836
 ---------------------------------------------------------------------

 SCF Done:  E(RPM3) = -0.850201695627E-01 A.U. after    2 cycles

 The electronic state is 1-A1.
 Alpha  occ. eigenvalues --   -1.35326  -0.64607  -0.53375  -0.45264
 Alpha virt. eigenvalues --    0.14918   0.19591

 Mulliken charges:
               1
     1  O   -0.358535
     2  H    0.179268
     3  H    0.179268
 Sum of Mulliken charges =   0.00000

 Dipole moment (field-independent basis, Debye):
    X=              0.0000    Y=              0.0000    Z=             -1.7386  Tot=              1.7386
 N-N= 1.734501285253D+01 E-N=-2.303218326428D+01  KE=-5.856448339820D+00
 Symmetry A1   KE=-3.657806206925D+00
 Symmetry A2   KE= 0.000000000000D+00
 Symmetry B1   KE=-9.096554198772D-01
 Symmetry B2   KE=-1.288986713018D+00
  Exact polarizability:   0.347   0.000   6.469   0.000   0.000   3.323
 Approx polarizability:   0.131   0.000   3.881   0.000   0.000   1.945
 PrsmSu:  requested number of processors reduced to:   9 ShMem   1 Linda.
 PrsmSu:  requested number of processors reduced to:  10 ShMem  12 Linda.
 Calling FoFJK, ICntrl=    100127 FMM=F ISym2X=1 I1Cent= 0 IOpClX= 0 NMat=1 NMatS=1 NMatT=0.

                      1                      2                      3
                     A1                     B2                     A1
 Frequencies --   1742.2570              3867.7944              3988.2497
 Red. masses --      1.0896                 1.0850                 1.0388
 Frc consts  --      1.9486                 9.5633                 9.7355
 IR Inten    --     13.8573                 6.4672                 6.2027

 - Thermochemistry -
 -------------------
 Temperature   298.150 Kelvin.  Pressure   1.00000 Atm.
 Atom     1 has atomic number  8 and mass  15.99491

 Molecular mass:    18.01056 amu.
 Principal axes and moments of inertia in atomic units:
                           1         2         3
     Eigenvalues --     2.01216   4.24358   6.25574
           X            0.00000   0.00000   1.00000
           Y            1.00000   0.00000   0.00000
           Z            0.00000   1.00000   0.00000
 This molecule is an asymmetric top.
 Rotational symmetry number  2.
 Rotational temperatures (Kelvin)     43.04514    20.41055    13.84549
 Rotational constants (GHZ):         896.91629   425.28738   288.49351
 Zero-point vibrational energy      57410.6 (Joules/Mol)
                                   13.72146 (Kcal/Mol)
 Vibrational temperatures:   2506.72  5564.89  5738.19
          (Kelvin)

 Zero-point correction=                           0.021867 (Hartree/Particle)
 Thermal correction to Energy=                    0.024701
 Thermal correction to Enthalpy=                  0.025645
 Thermal correction to Gibbs Free Energy=         0.004269
 Sum of electronic and zero-point Energies=             -0.063154
 Sum of electronic and thermal Energies=                -0.060319
 Sum of electronic and thermal Enthalpies=              -0.059375
 Sum of electronic and thermal Free Energies=           -0.080752

                     E (Thermal)             CV                S
                      KCal/Mol        Cal/Mol-Kelvin    Cal/Mol-Kelvin
 Total                   15.500              5.993             44.991
 Electronic               0.000              0.000              0.000
 Translational            0.889              2.981             34.608
 Rotational               0.889              2.981             10.378
 Vibrational             13.723              0.031              0.004

 Optimization completed.
    -- Stationary point found.
 Normal termination of Gaussian 09 at Thu Apr 23 16:43:04 2015.
