 Gaussian 09, Revision D.01,
 Gaussian 09:  ES64L-G09RevD.01 24-Apr-2013

 ------------------------------
 #n RHF/STO-3G Opt Freq gfprint
 ------------------------------

 ---------
 Water_PM3
 ---------
 Symbolic Z-matrix:
 Charge =  0 Multiplicity = 1

 SCF Done:  E(RHF) =  -74.9650029830     A.U. after    7 cycles
 SCF Done:  E(RHF) =  -74.9653087256     A.U. after    7 cycles
 SCF Done:  E(RHF) =  -74.9659008211     A.U. after    6 cycles
 SCF Done:  E(RHF) =  -74.9659012009     A.U. after    6 cycles
 Optimization completed.
    -- Stationary point found.
 Normal termination of Gaussian 09 at Thu Apr 23 16:49:52 2015.

 ---------------------------------------------------------------
 #N Geom=AllCheck Guess=TCheck SCRF=Check GenChk RHF/STO-3G Freq
 ---------------------------------------------------------------

 Structure from the checkpoint file:  "04_24_Homework41b_water_RHFSTO.chk"
 ---------
 Water_PM3
 ---------
 Charge =  0 Multiplicity = 1

                         Standard orientation:
 ---------------------------------------------------------------------
 Center     Atomic      Atomic             Coordinates (Angstroms)
 Number     Number       Type             X           Y           Z
 ---------------------------------------------------------------------
      1          8           0        0.000000    0.000000    0.127141
      2          1           0        0.000000    0.758052   -0.508565
      3          1           0        0.000000   -0.758052   -0.508565
 ---------------------------------------------------------------------

 SCF Done:  E(RHF) =  -74.9659012009     A.U. after    1 cycles

 The electronic state is 1-A1.
 Alpha  occ. eigenvalues --  -20.25156  -1.25758  -0.59391  -0.45973  -0.39262
 Alpha virt. eigenvalues --    0.58186   0.69279

 Mulliken charges:
               1
     1  O   -0.330612
     2  H    0.165306
     3  H    0.165306
 Sum of Mulliken charges =   0.00000

 Dipole moment (field-independent basis, Debye):
    X=              0.0000    Y=              0.0000    Z=             -1.7093  Tot=              1.7093
 Quadrupole moment (field-independent basis, Debye-Ang):
   XX=             -6.1256   YY=             -4.4854   ZZ=             -5.3333
   XY=              0.0000   XZ=              0.0000   YZ=              0.0000

  Exact polarizability:   0.040   0.000   5.507   0.000   0.000   2.565
 Approx polarizability:   0.020   0.000   3.938   0.000   0.000   2.605

                      1                      2                      3
                     A1                     A1                     B2
 Frequencies --   2169.8573              4140.9271              4392.0757
 Red. masses --      1.0785                 1.0491                 1.0774
 Frc consts  --      2.9918                10.5988                12.2449
 IR Inten    --      7.2447                44.2774                29.9527
 Raman Activ --      9.2644                47.8057                21.5456

 - Thermochemistry -
 -------------------
 Temperature   298.150 Kelvin.  Pressure   1.00000 Atm.
 Atom     1 has atomic number  8 and mass  15.99491

 Molecular mass:    18.01056 amu.
 Principal axes and moments of inertia in atomic units:
                           1         2         3
     Eigenvalues --     2.58333   4.13629   6.71962
           X            0.00000   0.00000   1.00000
           Y            1.00000   0.00000   0.00000
           Z            0.00000   1.00000   0.00000
 This molecule is an asymmetric top.
 Rotational symmetry number  2.
 Rotational temperatures (Kelvin)     33.52797    20.93999    12.88969
 Rotational constants (GHZ):         698.61038   436.31913   268.57798
 Zero-point vibrational energy      64017.3 (Joules/Mol)
                                   15.30051 (Kcal/Mol)
 Vibrational temperatures:   3121.94  5957.86  6319.21
          (Kelvin)

 Zero-point correction=                           0.024383 (Hartree/Particle)
 Thermal correction to Energy=                    0.027216
 Thermal correction to Enthalpy=                  0.028160
 Thermal correction to Gibbs Free Energy=         0.006645
 Sum of electronic and zero-point Energies=            -74.941518
 Sum of electronic and thermal Energies=               -74.938685
 Sum of electronic and thermal Enthalpies=             -74.937741
 Sum of electronic and thermal Free Energies=          -74.959256

                     E (Thermal)             CV                S
                      KCal/Mol        Cal/Mol-Kelvin    Cal/Mol-Kelvin
 Total                   17.078              5.968             45.281
 Electronic               0.000              0.000              0.000
 Translational            0.889              2.981             34.608
 Rotational               0.889              2.981             10.672
 Vibrational             15.301              0.006              0.001

 Optimization completed.
    -- Stationary point found.
 Normal termination of Gaussian 09 at Thu Apr 23 16:50:10 2015.
