 Gaussian 09, Revision D.01,
 Gaussian 09:  ES64L-G09RevD.01 24-Apr-2013

 ---------------------
 #n RHF/6-31G(d,p) Opt
 ---------------------

 -----------------
 04_24_Homework43a
 -----------------
 Symbolic Z-matrix:
 Charge =  0 Multiplicity = 1

 SCF Done:  E(RHF) =  -460.268707916     A.U. after   13 cycles
 SCF Done:  E(RHF) =  -460.271649254     A.U. after   13 cycles
 SCF Done:  E(RHF) =  -460.271821925     A.U. after   11 cycles
 SCF Done:  E(RHF) =  -460.271843037     A.U. after   11 cycles
 SCF Done:  E(RHF) =  -460.271844830     A.U. after    9 cycles
 Optimization completed.
    -- Stationary point found.

                         Standard orientation:
 ---------------------------------------------------------------------
 Center     Atomic      Atomic             Coordinates (Angstroms)
 Number     Number       Type             X           Y           Z
 ---------------------------------------------------------------------
      1          6           0        0.462682   -1.459169   -1.102856
      2          6           0        0.462470   -2.843621   -1.103277
      3          6           0        0.000000   -0.745657    0.000000
      4          6           0       -0.462682   -1.459169    1.102856
      5          6           0        0.000000   -3.541586    0.000000
      6          6           0       -0.462470   -2.843621    1.103277
      7          1           0        0.830403   -3.376197   -1.962703
      8          1           0        0.000000   -4.617265    0.000000
      9          1           0       -0.830403   -3.376197    1.962703
     10          1           0       -0.843039   -0.927513    1.956886
     11          1           0        0.843039   -0.927513   -1.956886
     12          6           0        0.000000    0.745657    0.000000
     13          6           0       -0.462682    1.459169   -1.102856
     14          6           0       -0.462470    2.843621   -1.103277
     15          6           0        0.000000    3.541586    0.000000
     16          6           0        0.462682    1.459169    1.102856
     17          6           0        0.462470    2.843621    1.103277
     18          1           0       -0.843039    0.927513   -1.956886
     19          1           0       -0.830403    3.376197   -1.962703
     20          1           0        0.000000    4.617265    0.000000
     21          1           0        0.830403    3.376197    1.962703
     22          1           0        0.843039    0.927513    1.956886
 ---------------------------------------------------------------------

 The electronic state is 1-A.
 Alpha  occ. eigenvalues --  -11.24032 -11.23963 -11.23056 -11.23056 -11.23023
 Alpha  occ. eigenvalues --  -11.23023 -11.22857 -11.22857 -11.22833 -11.22832
 Alpha  occ. eigenvalues --  -11.22803 -11.22803  -1.16785  -1.14094  -1.05024
 Alpha  occ. eigenvalues --   -1.01717  -1.00954  -0.98132  -0.84739  -0.83789
 Alpha  occ. eigenvalues --   -0.80958  -0.78776  -0.71655  -0.68077  -0.64858
 Alpha  occ. eigenvalues --   -0.63465  -0.61358  -0.60557  -0.58681  -0.58089
 Alpha  occ. eigenvalues --   -0.57983  -0.51745  -0.51153  -0.49837  -0.48807
 Alpha  occ. eigenvalues --   -0.47983  -0.47659  -0.35995  -0.33384  -0.33207
 Alpha  occ. eigenvalues --   -0.29982
 Alpha virt. eigenvalues --    0.11651   0.14403   0.14591   0.18217   0.24428
 Alpha virt. eigenvalues --    0.24512   0.28190   0.30033   0.30241   0.31883
 Alpha virt. eigenvalues --    0.32863   0.33267   0.34516   0.34891   0.37621

 Mulliken charges:
               1
     1  C   -0.149754
     2  C   -0.147150
     3  C   -0.012853
     4  C   -0.149754
     5  C   -0.151535
     6  C   -0.147150
     7  H    0.149735
     8  H    0.148962
     9  H    0.149735
    10  H    0.154882
    11  H    0.154882
    12  C   -0.012853
    13  C   -0.149754
    14  C   -0.147150
    15  C   -0.151535
    16  C   -0.149754
    17  C   -0.147150
    18  H    0.154882
    19  H    0.149735
    20  H    0.148962
    21  H    0.149735
    22  H    0.154882
 Sum of Mulliken charges =   0.00000

 Dipole moment (field-independent basis, Debye):
    X=              0.0000    Y=              0.0000    Z=              0.0000  Tot=              0.0000
 Quadrupole moment (field-independent basis, Debye-Ang):
   XX=            -74.5830   YY=            -61.2409   ZZ=            -63.4895
   XY=              0.0000   XZ=              0.0000   YZ=              0.0000

 Normal termination of Gaussian 09 at Wed Apr 22 01:34:51 2015.
