 Gaussian 09, Revision D.01,
 Gaussian 09:  ES64L-G09RevD.01 24-Apr-2013

 ---------------------
 #n RHF/6-31G(d,p) Opt
 ---------------------

 -----
 Title
 -----
 Symbolic Z-matrix:
 Charge =  1 Multiplicity = 1

 SCF Done:  E(RHF) =  -156.395563169     A.U. after   13 cycles
 SCF Done:  E(RHF) =  -156.402681570     A.U. after   12 cycles
 SCF Done:  E(RHF) =  -156.405813272     A.U. after   12 cycles
 SCF Done:  E(RHF) =  -156.408346554     A.U. after   11 cycles
 SCF Done:  E(RHF) =  -156.411678282     A.U. after   11 cycles
 SCF Done:  E(RHF) =  -156.369847073     A.U. after   12 cycles
 SCF Done:  E(RHF) =  -156.422435877     A.U. after   12 cycles
 SCF Done:  E(RHF) =  -156.412651061     A.U. after   12 cycles
 SCF Done:  E(RHF) =  -156.428639158     A.U. after   12 cycles
 SCF Done:  E(RHF) =  -156.438179020     A.U. after   11 cycles
 SCF Done:  E(RHF) =  -156.456910377     A.U. after   11 cycles
 SCF Done:  E(RHF) =  -156.457500798     A.U. after   10 cycles
 SCF Done:  E(RHF) =  -156.457814463     A.U. after   10 cycles
 SCF Done:  E(RHF) =  -156.458079218     A.U. after   12 cycles
 SCF Done:  E(RHF) =  -156.458025964     A.U. after   10 cycles
 SCF Done:  E(RHF) =  -156.458334832     A.U. after   10 cycles
 SCF Done:  E(RHF) =  -156.458440879     A.U. after   10 cycles
 SCF Done:  E(RHF) =  -156.458455166     A.U. after   10 cycles
 SCF Done:  E(RHF) =  -156.458463266     A.U. after    9 cycles
 SCF Done:  E(RHF) =  -156.458463734     A.U. after    8 cycles
 Optimization completed.
    -- Stationary point found.

                         Standard orientation:
 ---------------------------------------------------------------------
 Center     Atomic      Atomic             Coordinates (Angstroms)
 Number     Number       Type             X           Y           Z
 ---------------------------------------------------------------------
      1          6           0       -0.000006    0.004710    0.020542
      2          6           0        1.278061    0.734088    0.012009
      3          1           0        1.506773    0.867009   -1.051607
      4          1           0        2.086021    0.150873    0.434837
      5          1           0        1.210977    1.715054    0.459945
      6          6           0       -1.278884    0.732673    0.012013
      7          1           0       -1.212816    1.713938    0.459436
      8          1           0       -2.086046    0.148731    0.435374
      9          1           0       -1.508101    0.864731   -1.051601
     10          6           0        0.000818   -1.464780   -0.013942
     11          1           0        0.001366   -1.751077    1.044670
     12          1           0       -0.896593   -1.875230   -0.457156
     13          1           0        0.898484   -1.874177   -0.457632
 ---------------------------------------------------------------------

 The electronic state is 1-A.
 Alpha  occ. eigenvalues --  -11.58024 -11.44300 -11.44253 -11.44251  -1.35409
 Alpha  occ. eigenvalues --   -1.18819  -1.18686  -0.96028  -0.85001  -0.84911
 Alpha  occ. eigenvalues --   -0.83145  -0.76079  -0.75871  -0.74674  -0.73424
 Alpha  occ. eigenvalues --   -0.73277
 Alpha virt. eigenvalues --   -0.15510   0.02923   0.08461   0.09451   0.10818
 Alpha virt. eigenvalues --    0.10824   0.11487   0.14307   0.15554   0.15901
 Alpha virt. eigenvalues --    0.17073   0.25294   0.27441   0.48256   0.49321

 Mulliken charges:
               1
     1  C    0.267884
     2  C   -0.425187
     3  H    0.236358
     4  H    0.219486
     5  H    0.215491
     6  C   -0.425188
     7  H    0.215476
     8  H    0.219507
     9  H    0.236356
    10  C   -0.431390
    11  H    0.237396
    12  H    0.216896
    13  H    0.216914
 Sum of Mulliken charges =   1.00000

 Dipole moment (field-independent basis, Debye):
    X=              0.0000    Y=             -0.0320    Z=             -0.1505  Tot=              0.1539
 Quadrupole moment (field-independent basis, Debye-Ang):
   XX=            -18.3411   YY=            -18.5412   ZZ=            -22.8556
   XY=             -0.0001   XZ=              0.0004   YZ=             -0.5530

 Normal termination of Gaussian 09 at Wed Apr 22 22:01:56 2015.
