 Gaussian 09, Revision D.01,
 Gaussian 09:  ES64L-G09RevD.01 24-Apr-2013

 ------------------------------------------------
 #n RHF/6-31G(d,p) pop=Reg Opt=z-matrix formcheck
 ------------------------------------------------

 -----
 Hw42c
 -----
 Symbolic Z-matrix:
 Charge =  1 Multiplicity = 1

 SCF Done:  E(RHF) =  -156.395563169     A.U. after   13 cycles
 SCF Done:  E(RHF) =  -156.404274742     A.U. after   13 cycles
 SCF Done:  E(RHF) =  -156.406238955     A.U. after   12 cycles
 SCF Done:  E(RHF) =  -156.408282243     A.U. after   12 cycles
 SCF Done:  E(RHF) =  -156.409863369     A.U. after   11 cycles
 SCF Done:  E(RHF) =  -156.399658697     A.U. after   13 cycles
 SCF Done:  E(RHF) =  -156.406823198     A.U. after   12 cycles
 SCF Done:  E(RHF) =  -156.409935111     A.U. after    8 cycles
 SCF Done:  E(RHF) =  -156.410803193     A.U. after   11 cycles
 SCF Done:  E(RHF) =  -156.411565894     A.U. after   11 cycles
 SCF Done:  E(RHF) =  -156.412596771     A.U. after   11 cycles
 SCF Done:  E(RHF) =  -156.412638984     A.U. after   11 cycles
 SCF Done:  E(RHF) =  -156.412593637     A.U. after   11 cycles
 SCF Done:  E(RHF) =  -156.412656548     A.U. after   10 cycles
 SCF Done:  E(RHF) =  -156.412669997     A.U. after   10 cycles
 SCF Done:  E(RHF) =  -156.412674277     A.U. after    9 cycles
 SCF Done:  E(RHF) =  -156.412678497     A.U. after   10 cycles
 SCF Done:  E(RHF) =  -156.412679959     A.U. after    9 cycles
 SCF Done:  E(RHF) =  -156.412679973     A.U. after    8 cycles
 SCF Done:  E(RHF) =  -156.412680256     A.U. after    8 cycles
 Optimization completed.
    -- Stationary point found.

                         Standard orientation:
 ---------------------------------------------------------------------
 Center     Atomic      Atomic             Coordinates (Angstroms)
 Number     Number       Type             X           Y           Z
 ---------------------------------------------------------------------
      1          6           0        0.000007    0.083395    0.065516
      2          6           0       -1.295788   -0.703132   -0.026991
      3          1           0       -1.354595   -1.137735   -1.018343
      4          1           0       -2.167990   -0.082373    0.132427
      5          1           0       -1.297099   -1.510196    0.693337
      6          6           0        1.295926   -0.702901   -0.026990
      7          1           0        1.297005   -1.510427    0.692821
      8          1           0        2.167986   -0.082149    0.133237
      9          1           0        1.355223   -1.136851   -1.018599
     10          6           0       -0.000152    1.456843   -0.089473
     11          1           0       -0.000067    0.634722    1.013364
     12          1           0        0.924715    2.010000   -0.080347
     13          1           0       -0.925144    2.009783   -0.080267
 ---------------------------------------------------------------------

 The electronic state is 1-A.
 Alpha  occ. eigenvalues --  -11.56012 -11.51200 -11.42008 -11.42006  -1.40339
 Alpha  occ. eigenvalues --   -1.18765  -1.15279  -1.01001  -0.89542  -0.85458
 Alpha  occ. eigenvalues --   -0.83826  -0.74770  -0.73896  -0.73820  -0.70785
 Alpha  occ. eigenvalues --   -0.70290
 Alpha virt. eigenvalues --   -0.13054   0.01434   0.05535   0.07534   0.10773
 Alpha virt. eigenvalues --    0.11728   0.12694   0.13856   0.16605   0.16635
 Alpha virt. eigenvalues --    0.18877   0.25742   0.28189   0.44913   0.48399

 Mulliken charges:
               1
     1  C   -0.143789
     2  C   -0.346346
     3  H    0.204196
     4  H    0.170403
     5  H    0.194929
     6  C   -0.346336
     7  H    0.194925
     8  H    0.170405
     9  H    0.204201
    10  C   -0.076766
    11  H    0.237421
    12  H    0.268378
    13  H    0.268378
 Sum of Mulliken charges =   1.00000

 Dipole moment (field-independent basis, Debye):
    X=             -0.0003    Y=              2.9161    Z=              0.4217  Tot=              2.9464
 Quadrupole moment (field-independent basis, Debye-Ang):
   XX=            -19.9723   YY=            -15.0505   ZZ=            -23.5947
   XY=             -0.0005   XZ=             -0.0002   YZ=              0.1711

 Normal termination of Gaussian 09 at Thu Apr 23 13:59:05 2015.
